/*--------------------------------*- C++ -*----------------------------------*\
| =========                 |                                                 |
| \\      /  F ield         | OpenFOAM: The Open Source CFD Toolbox           |
|  \\    /   O peration     | Version:  2.3.0                                 |
|   \\  /    A nd           | Web:      www.OpenFOAM.org                      |
|    \\/     M anipulation  |                                                 |
\*---------------------------------------------------------------------------*/
FoamFile
{
    version     2.0;
    format      ascii;
    class       volScalarField;
    location    "0";
    object      omega;
}
// * * * * * * * * * * * * * * * * * * * * * * * * * * * * * * * * * * * * * //

dimensions              [0 2 -3 0 0 0 0];

internalField           uniform 1e6;

boundaryField
{
    "(inlet|fuelInlet|fuelInlet1)"
    {
        type            fixedValue;
	    value		    uniform 1e6;
    }
    outlet
    {
        type            zeroGradient;
    }
    "(upperWall|upperWall2)"
    {
        type            symmetryPlane;
    }
    "(lowerWall|lowerWall2)"
    {
        type            epsilonWallFunction;
        Cmu             0.09;
        kappa           0.41;
        E               9.8;
        value           uniform 1e6;
    }
}


// ************************************************************************* //
