/*--------------------------------*- C++ -*----------------------------------*\
| =========                 |                                                 |
| \\      /  F ield         | OpenFOAM: The Open Source CFD Toolbox           |
|  \\    /   O peration     | Version:  2.3.0                                 |
|   \\  /    A nd           | Web:      www.OpenFOAM.org                      |
|    \\/     M anipulation  |                                                 |
\*---------------------------------------------------------------------------*/
FoamFile
{
    version     2.0;
    format      ascii;
    class       volScalarField;
    location    "0";
    object      k;
}
// * * * * * * * * * * * * * * * * * * * * * * * * * * * * * * * * * * * * * //

dimensions              [0 2 -2 0 0 0 0];

internalField           uniform 10;

boundaryField
{
    "(inlet|fuelInlet|fuelInlet1)"
    {
        type            fixedValue;
        value           uniform 10;
    }
    outlet
    {
        type            zeroGradient;
    }
    "(upperWall|upperWall2)"
    {
        type            symmetryPlane;
    }
    "(lowerWall|lowerWall2)"
    {
        type            kqRWallFunction;
        value           uniform 0;
        
        //type            kLowReWallFunction;
        //value           uniform 0;
    }
}


// ************************************************************************* //
