/*--------------------------------*- C++ -*----------------------------------*\
| =========                 |                                                 |
| \\      /  F ield         | OpenFOAM: The Open Source CFD Toolbox           |
|  \\    /   O peration     | Version:  2.3.0                                 |
|   \\  /    A nd           | Web:      www.OpenFOAM.org                      |
|    \\/     M anipulation  |                                                 |
\*---------------------------------------------------------------------------*/
FoamFile
{
    version     2.0;
    format      ascii;
    class       volScalarField;
    location    "0";
    object      omega;
}
// * * * * * * * * * * * * * * * * * * * * * * * * * * * * * * * * * * * * * //

dimensions              [0 0 -1 0 0 0 0];

internalField           uniform 1e3;

boundaryField
{
    "(inlet|fuelInlet|fuelInlet1)"
    {
        type            fixedValue;
	    value           uniform 1e3;
	    
        //type          turbulentMixingLengthFrequencyInlet;
        //mixingLength  3e-4;
        //value         uniform 1e4;
    }
    outlet
    {
        type            zeroGradient;
    }
    "(upperWall|upperWall2)"
    {
        type            symmetryPlane;
    }
    "(lowerWall|lowerWall2)"
    {
        type            omegaWallFunction;
        value           uniform 0;
    }
}


// ************************************************************************* //
