/*--------------------------------*- C++ -*----------------------------------*\
| =========                 |                                                 |
| \\      /  F ield         | OpenFOAM: The Open Source CFD Toolbox           |
|  \\    /   O peration     | Version:  2.3.0                                 |
|   \\  /    A nd           | Web:      www.OpenFOAM.org                      |
|    \\/     M anipulation  |                                                 |
\*---------------------------------------------------------------------------*/
FoamFile
{
    version     2.0;
    format      ascii;
    class       volScalarField;
    location    "0";
    object      T;
}
// * * * * * * * * * * * * * * * * * * * * * * * * * * * * * * * * * * * * * //

dimensions              [0 0 0 1 0 0 0];

internalField           uniform 2000;

boundaryField
{
    "(inlet|fuelInlet|fuelInlet1)"
    {
        type            fixedValue;
	    value		    uniform 2000;
    }
    outlet
    {
        //type          zeroGradient;

	    type		    inletOutlet;
	    inletValue	    uniform 300;
	    value		    uniform 300;
    }
    "(upperWall|upperWall2)"
    {
        type            symmetryPlane;
    }
    "(lowerWall|lowerWall2)"
    {
        type            zeroGradient;
    }
}


// ************************************************************************* //
