/*--------------------------------*- C++ -*----------------------------------*\
| =========                 |                                                 |
| \\      /  F ield         | OpenFOAM: The Open Source CFD Toolbox           |
|  \\    /   O peration     | Version:  2.3.0                                 |
|   \\  /    A nd           | Web:      www.OpenFOAM.org                      |
|    \\/     M anipulation  |                                                 |
\*---------------------------------------------------------------------------*/
FoamFile
{
    version     2.0;
    format      ascii;
    class       volVectorField;
    object      U;
}
// * * * * * * * * * * * * * * * * * * * * * * * * * * * * * * * * * * * * * //

dimensions              [0 1 -1 0 0 0 0];

internalField           uniform (300 0 0);

boundaryField
{
    inlet
    {
        //type            fixedValue;
        //value           uniform (100 0 0);

	    type		        pressureInletOutletVelocity;
        phi                 phi;
        tangentialVelocity  uniform (300 0 0);
        value               uniform (300 0 0);
        
        //type            inletOutlet;
        //inletValue      uniform (0 0 0);
        //value           uniform (0 0 0);
    }
    fuelInlet
    {
        type            fixedValue;
        value           uniform (10 -10 0);

	    //type		    zeroGradient;
    }
    fuelInlet1
    {
        type            fixedValue;
        value           uniform (10 10 0);

	    //type		    zeroGradient;
    }
    outlet
    {
        type		    inletOutlet;
	    value		    uniform (0 0 0);
	    inletValue	    uniform (0 0 0);
    }
    "(upperWall|upperWall2)"
    {
        type            symmetryPlane;
    }
    "(lowerWall|lowerWall2)"
    {
        type            fixedValue;
        value           uniform (0 0 0);

	    //type		    slip;
    }
}

// ************************************************************************* //
