/*--------------------------------*- C++ -*----------------------------------*\
  =========                 |
  \\      /  F ield         | OpenFOAM: The Open Source CFD Toolbox
   \\    /   O peration     | Website:  https://openfoam.org
    \\  /    A nd           | Version:  dev
     \\/     M anipulation  |
\*---------------------------------------------------------------------------*/
FoamFile
{
    version     2.0;
    format      ascii;
    class       volScalarField;
    location    "0";
    object      alphat;
}
// * * * * * * * * * * * * * * * * * * * * * * * * * * * * * * * * * * * * * //

dimensions      [1 -1 -1 0 0 0 0];

internalField   uniform 0;

boundaryField
{
    ground
    {
        type        compressible::alphatWallFunction;
        value       uniform 0;
    }

    top
    {
        type        zeroGradient;
    }

    burner
    {
        type        zeroGradient;
    }

    sides
    {
        type        zeroGradient;
    }

    "(region0_to.*)"
    {
        //type            alphatFireWallFunction;
        //QcFlame         20000.0;
        //QcThreshold     2000.0;
        //value           uniform 0;

        type        compressible::alphatWallFunction;
        value       uniform 0;
    }
}


// ************************************************************************* //
