/*--------------------------------*- C++ -*----------------------------------*\
  =========                 |
  \\      /  F ield         | OpenFOAM: The Open Source CFD Toolbox
   \\    /   O peration     | Website:  https://openfoam.org
    \\  /    A nd           | Version:  7
     \\/     M anipulation  |
\*---------------------------------------------------------------------------*/

FoamFile
{
    version         2.0;
    format          ascii;
    location        "0";
    class           volScalarField;
    object          nut;
}

// * * * * * * * * * * * * * * * * * * * * * * * * * * * * * * * * * * * * * //


dimensions      [0 2 -1 0 0 0 0];

internalField   uniform 0;

boundaryField
{
    "(top|side|burner)"
    {
        type            calculated;
        value           uniform 0;

        //type            zeroGradient;
    }

    "(ground|coupledWall)"
    {
        type            nutUSpaldingWallFunction;
        value           uniform 0;

        //type            zeroGradient;
    }

    region0_to_pyrolysisRegion_coupledWall
    {
        type            nutUSpaldingWallFunction;
        value           uniform 0;

        //type            nutUSpaldingBlowingWallFunction;
        //value           uniform 0;

        //type              zeroGradient;

        //type            nutFireWallFunction;
        //value           uniform 1e-8;
    }

}


// ************************************************************************* //
