/*--------------------------------*- C++ -*----------------------------------*\
  =========                 |
  \\      /  F ield         | OpenFOAM: The Open Source CFD Toolbox
   \\    /   O peration     | Website:  https://openfoam.org
    \\  /    A nd           | Version:  dev
     \\/     M anipulation  |
\*---------------------------------------------------------------------------*/
FoamFile
{
    version     2.0;
    format      ascii;
    class       volScalarField;
    location    "0";
    object      k;
}
// * * * * * * * * * * * * * * * * * * * * * * * * * * * * * * * * * * * * * //

dimensions      [0 2 -2 0 0 0 0];

internalField   uniform 0.1;

boundaryField
{
    "(sides|outlet)"
    {
        type            inletOutlet;
        inletValue      $internalField;
        value           $internalField;
    }

    top
    {
        type            zeroGradient;
    }

    inlet
    {
        type            zeroGradient;

        /*type            atmBoundaryLayerInletK;
        flowDir         (1 0 0);      
        zDir            (0 1 0);
        Uref            10;
        Zref            15;
        z0              uniform 0.1;
        zGround         uniform 5; //4.9
        value           $internalField;*/
    }

    ".*"
    {
        type            zeroGradient;
    }
    
    burner
    {
        type            zeroGradient;
    }

    "(region0_to.*)"
    {
        type            zeroGradient;
    }
}


// ************************************************************************* //
