/*--------------------------------*- C++ -*----------------------------------*\
  =========                 |
  \\      /  F ield         | OpenFOAM: The Open Source CFD Toolbox
   \\    /   O peration     | Website:  https://openfoam.org
    \\  /    A nd           | Version:  dev
     \\/     M anipulation  |
\*---------------------------------------------------------------------------*/
FoamFile
{
    version     2.0;
    format      ascii;
    class       volScalarField;
    location    "0";
    object      nut;
}
// * * * * * * * * * * * * * * * * * * * * * * * * * * * * * * * * * * * * * //

dimensions      [0 2 -1 0 0 0 0];

internalField   uniform 0;

boundaryField
{
    ".*"
    {
        type        calculated;
        value       $internalField;
    }

    top
    {
        type        zeroGradient;
    }

    base
    {
        type            nutkAtmRoughWallFunction;
        z0              0.1;
        value           uniform 0.0;
    }

    "(region0_to.*)"
    {
        type            nutkAtmRoughWallFunction;
        z0              0.1;
        value           uniform 0.0;
    
        //type            nutUSpaldingWallFunction;
        //value           uniform 0;

        //type            nutFireWallFunction;
        //value           uniform 1e-8;
    }
}


// ************************************************************************* //
