/*--------------------------------*- C++ -*----------------------------------*\
  =========                 |
  \\      /  F ield         | OpenFOAM: The Open Source CFD Toolbox
   \\    /   O peration     | Website:  https://openfoam.org
    \\  /    A nd           | Version:  7
     \\/     M anipulation  |
\*---------------------------------------------------------------------------*/
FoamFile
{
    version     2.0;
    format      ascii;
    class       volScalarField;
    location    "0";
    object      alphat;
}
// * * * * * * * * * * * * * * * * * * * * * * * * * * * * * * * * * * * * * //

dimensions      [1 -1 -1 0 0 0 0];

internalField   uniform 0;

boundaryField
{
    "(top|side|burner)"
    {
        //type            zeroGradient;

        type            calculated;
        value           uniform 0;
    }

    "(ground|coupledWall)"
    {
        //type            zeroGradient;

        type            compressible::alphatWallFunction;
        Prt             1;
        value           uniform 0;
    }

    region0_to_pyrolysisRegion_coupledWall
    {
        type            compressible::alphatWallFunction;
        Prt             1;
        value           uniform 0;

        //type              zeroGradient;

        //type            alphatFireWallFunction;
        //QcFlame         20000.0;
        //QcThreshold     2000.0;
        //value           $internalField;
    }
}


// ************************************************************************* //
